# 
#  CBR wet
# from https://www.ncl.ucar.edu/Document/Graphics/ColorTables/CBR_wet.shtml
0. 0 32 62 0.003922 0 33 65
0.003922 0 33 65 0.007843 1 35 67
0.007843 1 35 67 0.011765 1 36 70
0.011765 1 36 70 0.015686 1 37 73
0.015686 1 37 73 0.019608 2 38 75
0.019608 2 38 75 0.023529 2 40 78
0.023529 2 40 78 0.027451 2 41 80
0.027451 2 41 80 0.031373 3 42 83
0.031373 3 42 83 0.035294 3 43 86
0.035294 3 43 86 0.039216 3 45 88
0.039216 3 45 88 0.043137 3 46 91
0.043137 3 46 91 0.047059 4 47 94
0.047059 4 47 94 0.05098 4 48 96
0.05098 4 48 96 0.054902 4 50 99
0.054902 4 50 99 0.058824 5 51 101
0.058824 5 51 101 0.062745 5 52 104
0.062745 5 52 104 0.066667 5 53 107
0.066667 5 53 107 0.070588 6 55 109
0.070588 6 55 109 0.07451 6 56 112
0.07451 6 56 112 0.078431 6 57 115
0.078431 6 57 115 0.082353 7 58 117
0.082353 7 58 117 0.086275 7 60 120
0.086275 7 60 120 0.090196 7 61 122
0.090196 7 61 122 0.094118 8 62 125
0.094118 8 62 125 0.098039 8 63 128
0.098039 8 63 128 0.101961 8 65 130
0.101961 8 65 130 0.105882 8 66 132
0.105882 8 66 132 0.109804 8 68 133
0.109804 8 68 133 0.113725 8 69 135
0.113725 8 69 135 0.117647 8 71 137
0.117647 8 71 137 0.121569 8 73 138
0.121569 8 73 138 0.12549 8 74 140
0.12549 8 74 140 0.129412 8 76 142
0.129412 8 76 142 0.133333 8 77 143
0.133333 8 77 143 0.137255 8 79 145
0.137255 8 79 145 0.141176 8 80 147
0.141176 8 80 147 0.145098 8 82 148
0.145098 8 82 148 0.14902 8 84 150
0.14902 8 84 150 0.152941 8 85 152
0.152941 8 85 152 0.156863 8 87 153
0.156863 8 87 153 0.160784 8 88 155
0.160784 8 88 155 0.164706 8 90 157
0.164706 8 90 157 0.168627 8 91 159
0.168627 8 91 159 0.172549 8 93 160
0.172549 8 93 160 0.176471 8 95 162
0.176471 8 95 162 0.180392 8 96 164
0.180392 8 96 164 0.184314 8 98 165
0.184314 8 98 165 0.188235 8 99 167
0.188235 8 99 167 0.192157 8 101 169
0.192157 8 101 169 0.196078 8 102 170
0.196078 8 102 170 0.2 8 104 172
0.2 8 104 172 0.203922 9 105 173
0.203922 9 105 173 0.207843 11 107 173
0.207843 11 107 173 0.211765 12 108 174
0.211765 12 108 174 0.215686 13 110 175
0.215686 13 110 175 0.219608 15 111 176
0.219608 15 111 176 0.223529 16 112 176
0.223529 16 112 176 0.227451 18 114 177
0.227451 18 114 177 0.231373 19 115 178
0.231373 19 115 178 0.235294 20 117 178
0.235294 20 117 178 0.239216 22 118 179
0.239216 22 118 179 0.243137 23 120 180
0.243137 23 120 180 0.247059 24 121 180
0.247059 24 121 180 0.25098 26 122 181
0.25098 26 122 181 0.254902 27 124 182
0.254902 27 124 182 0.258824 29 125 183
0.258824 29 125 183 0.262745 30 127 183
0.262745 30 127 183 0.266667 31 128 184
0.266667 31 128 184 0.270588 33 129 185
0.270588 33 129 185 0.27451 34 131 185
0.27451 34 131 185 0.278431 35 132 186
0.278431 35 132 186 0.282353 37 134 187
0.282353 37 134 187 0.286275 38 135 188
0.286275 38 135 188 0.290196 40 136 188
0.290196 40 136 188 0.294118 41 138 189
0.294118 41 138 189 0.298039 42 139 190
0.298039 42 139 190 0.301961 44 141 190
0.301961 44 141 190 0.305882 45 142 191
0.305882 45 142 191 0.309804 46 144 192
0.309804 46 144 192 0.313725 48 145 193
0.313725 48 145 193 0.317647 49 147 194
0.317647 49 147 194 0.321569 51 148 195
0.321569 51 148 195 0.32549 52 150 195
0.32549 52 150 195 0.329412 53 151 196
0.329412 53 151 196 0.333333 55 153 197
0.333333 55 153 197 0.337255 56 155 198
0.337255 56 155 198 0.341176 57 156 199
0.341176 57 156 199 0.345098 59 158 199
0.345098 59 158 199 0.34902 60 159 200
0.34902 60 159 200 0.352941 62 161 201
0.352941 62 161 201 0.356863 63 162 202
0.356863 63 162 202 0.360784 64 164 203
0.360784 64 164 203 0.364706 66 165 204
0.364706 66 165 204 0.368627 67 167 204
0.368627 67 167 204 0.372549 68 168 205
0.372549 68 168 205 0.376471 70 170 206
0.376471 70 170 206 0.380392 71 171 207
0.380392 71 171 207 0.384314 73 173 208
0.384314 73 173 208 0.388235 74 174 209
0.388235 74 174 209 0.392157 75 176 209
0.392157 75 176 209 0.396078 77 177 210
0.396078 77 177 210 0.4 78 179 211
0.4 78 179 211 0.403922 80 180 210
0.403922 80 180 210 0.407843 82 181 210
0.407843 82 181 210 0.411765 83 182 209
0.411765 83 182 209 0.415686 85 183 209
0.415686 85 183 209 0.419608 87 184 208
0.419608 87 184 208 0.423529 89 185 207
0.423529 89 185 207 0.427451 90 186 207
0.427451 90 186 207 0.431373 92 187 206
0.431373 92 187 206 0.435294 94 188 206
0.435294 94 188 206 0.439216 96 189 205
0.439216 96 189 205 0.443137 97 190 205
0.443137 97 190 205 0.447059 99 191 204
0.447059 99 191 204 0.45098 101 192 203
0.45098 101 192 203 0.454902 103 193 203
0.454902 103 193 203 0.458824 104 194 202
0.458824 104 194 202 0.462745 106 195 202
0.462745 106 195 202 0.466667 108 196 201
0.466667 108 196 201 0.470588 110 197 200
0.470588 110 197 200 0.47451 112 198 200
0.47451 112 198 200 0.478431 113 199 199
0.478431 113 199 199 0.482353 115 200 199
0.482353 115 200 199 0.486275 117 201 198
0.486275 117 201 198 0.490196 119 202 197
0.490196 119 202 197 0.494118 120 203 197
0.494118 120 203 197 0.498039 122 204 196
0.498039 122 204 196 0.501961 124 204 196
0.501961 124 204 196 0.505882 126 205 195
0.505882 126 205 195 0.509804 127 206 195
0.509804 127 206 195 0.513725 129 206 194
0.513725 129 206 194 0.517647 131 207 193
0.517647 131 207 193 0.521569 133 208 193
0.521569 133 208 193 0.52549 134 208 192
0.52549 134 208 192 0.529412 136 209 192
0.529412 136 209 192 0.533333 138 210 191
0.533333 138 210 191 0.537255 140 210 190
0.537255 140 210 190 0.541176 142 211 190
0.541176 142 211 190 0.545098 143 212 189
0.545098 143 212 189 0.54902 145 212 189
0.54902 145 212 189 0.552941 147 213 188
0.552941 147 213 188 0.556863 149 214 187
0.556863 149 214 187 0.560784 150 214 187
0.560784 150 214 187 0.564706 152 215 186
0.564706 152 215 186 0.568627 154 216 186
0.568627 154 216 186 0.572549 156 216 185
0.572549 156 216 185 0.576471 157 217 185
0.576471 157 217 185 0.580392 159 218 184
0.580392 159 218 184 0.584314 161 218 183
0.584314 161 218 183 0.588235 163 219 183
0.588235 163 219 183 0.592157 164 220 182
0.592157 164 220 182 0.596078 166 220 182
0.596078 166 220 182 0.6 168 221 181
0.6 168 221 181 0.603922 169 222 182
0.603922 169 222 182 0.607843 171 222 182
0.607843 171 222 182 0.611765 172 223 183
0.611765 172 223 183 0.615686 174 223 184
0.615686 174 223 184 0.619608 175 224 184
0.619608 175 224 184 0.623529 176 224 185
0.623529 176 224 185 0.627451 178 225 185
0.627451 178 225 185 0.631373 179 225 186
0.631373 179 225 186 0.635294 181 226 187
0.635294 181 226 187 0.639216 182 226 187
0.639216 182 226 187 0.643137 184 227 188
0.643137 184 227 188 0.647059 185 228 189
0.647059 185 228 189 0.65098 186 228 189
0.65098 186 228 189 0.654902 188 229 190
0.654902 188 229 190 0.658824 189 229 190
0.658824 189 229 190 0.662745 191 230 191
0.662745 191 230 191 0.666667 192 230 192
0.666667 192 230 192 0.670588 193 231 192
0.670588 193 231 192 0.67451 195 231 193
0.67451 195 231 193 0.678431 196 232 194
0.678431 196 232 194 0.682353 198 233 194
0.682353 198 233 194 0.686275 199 233 195
0.686275 199 233 195 0.690196 200 234 195
0.690196 200 234 195 0.694118 202 234 196
0.694118 202 234 196 0.698039 203 235 197
0.698039 203 235 197 0.701961 204 235 197
0.701961 204 235 197 0.705882 205 235 198
0.705882 205 235 198 0.709804 206 236 199
0.709804 206 236 199 0.713725 207 236 200
0.713725 207 236 200 0.717647 208 236 201
0.717647 208 236 201 0.721569 208 237 202
0.721569 208 237 202 0.72549 209 237 203
0.72549 209 237 203 0.729412 210 237 203
0.729412 210 237 203 0.733333 211 238 204
0.733333 211 238 204 0.737255 211 238 205
0.737255 211 238 205 0.741176 212 238 206
0.741176 212 238 206 0.745098 213 239 207
0.745098 213 239 207 0.74902 214 239 208
0.74902 214 239 208 0.752941 215 239 209
0.752941 215 239 209 0.756863 215 240 210
0.756863 215 240 210 0.760784 216 240 210
0.760784 216 240 210 0.764706 217 240 211
0.764706 217 240 211 0.768627 218 240 212
0.768627 218 240 212 0.772549 219 241 213
0.772549 219 241 213 0.776471 219 241 214
0.776471 219 241 214 0.780392 220 241 215
0.780392 220 241 215 0.784314 221 242 216
0.784314 221 242 216 0.788235 222 242 216
0.788235 222 242 216 0.792157 222 242 217
0.792157 222 242 217 0.796078 223 243 218
0.796078 223 243 218 0.8 224 243 219
0.8 224 243 219 0.803922 225 243 220
0.803922 225 243 220 0.807843 226 244 221
0.807843 226 244 221 0.811765 227 244 221
0.811765 227 244 221 0.815686 228 244 222
0.815686 228 244 222 0.819608 229 245 223
0.819608 229 245 223 0.823529 229 245 224
0.823529 229 245 224 0.827451 230 245 225
0.827451 230 245 225 0.831373 231 246 226
0.831373 231 246 226 0.835294 232 246 226
0.835294 232 246 226 0.839216 233 247 227
0.839216 233 247 227 0.843137 234 247 228
0.843137 234 247 228 0.847059 235 247 229
0.847059 235 247 229 0.85098 236 248 230
0.85098 236 248 230 0.854902 237 248 231
0.854902 237 248 231 0.858824 238 248 231
0.858824 238 248 231 0.862745 238 249 232
0.862745 238 249 232 0.866667 239 249 233
0.866667 239 249 233 0.870588 240 249 234
0.870588 240 249 234 0.87451 241 250 235
0.87451 241 250 235 0.878431 242 250 235
0.878431 242 250 235 0.882353 243 250 236
0.882353 243 250 236 0.886275 244 251 237
0.886275 244 251 237 0.890196 245 251 238
0.890196 245 251 238 0.894118 246 251 239
0.894118 246 251 239 0.898039 247 252 240
0.898039 247 252 240 0.901961 247 252 240
0.901961 247 252 240 0.905882 247 252 241
0.905882 247 252 241 0.909804 248 252 241
0.909804 248 252 241 0.913725 248 252 242
0.913725 248 252 242 0.917647 248 253 243
0.917647 248 253 243 0.921569 249 253 243
0.921569 249 253 243 0.92549 249 253 244
0.92549 249 253 244 0.929412 249 253 244
0.929412 249 253 244 0.933333 250 253 245
0.933333 250 253 245 0.937255 250 253 246
0.937255 250 253 246 0.941176 250 253 246
0.941176 250 253 246 0.945098 251 253 247
0.945098 251 253 247 0.94902 251 253 247
0.94902 251 253 247 0.952941 251 254 248
0.952941 251 254 248 0.956863 252 254 249
0.956863 252 254 249 0.960784 252 254 249
0.960784 252 254 249 0.964706 252 254 250
0.964706 252 254 250 0.968627 252 254 250
0.968627 252 254 250 0.972549 253 254 251
0.972549 253 254 251 0.976471 253 254 251
0.976471 253 254 251 0.980392 253 254 252
0.980392 253 254 252 0.984314 254 255 253
0.984314 254 255 253 0.988235 254 255 253
0.988235 254 255 253 0.992157 254 255 254
0.992157 254 255 254 0.996078 255 255 254
0.996078 255 255 254 1. 255 255 255
N 255 255 255    
B 44 26 76    
F 255 255 255    